1660	0	*	1
1408	1	*	1
1582	2	*	1
1036	3	*	1
975	4	*	1
289	5	*	1
1166	6	*	1
1294	1	0.0/1333aa/41.73%	1
1343	1	0.0/1333aa/41.73%	1
1201	7	*	1
610	8	*	1
708	9	*	1
1239	10	*	1
96	11	*	1
282	12	*	1
224	1	0.0/945:62aa/40.31%	1
1086	10	0.0/1247aa/37.5%	1
137	13	*	1
660	10	3.27e-147/1164aa/30.25%	1
1253	10	0.0/1166aa/42.32%	1
243	10	9.22e-161/1202aa/32.68%	1
349	10	9.22e-161/1202aa/32.68%	1
56	10	0.0/1155aa/47%	1
1728	14	*	1
107	15	*	1
592	16	*	1
368	17	*	1
529	10	0.0/1100aa/37.08%	1
1436	18	*	1
826	19	*	1
1413	20	*	1
415	17	0.0/1208aa/41.34%	1
151	21	*	1
512	22	*	1
400	23	*	1
1337	20	0.0/1153aa/85.2%	1
1288	20	0.0/1148aa/85.22%	1
1475	23	0.0/1076aa/38.8%	1
1542	10	0.0/849aa/31.54%	1
875	23	0.0/1059aa/51.84%	1
15	10	2.18e-170/841aa/31.71%	1
1502	24	*	1
530	10	0.0/860aa/35.39%	1
1773	25	*	1
769	10	0.0/860aa/37.02%	1
690	26	*	1
516	27	*	1
498	10	0.0/879aa/44.26%	1
1605	28	*	1
1561	29	*	1
1207	0	1.29e-100/867aa/31.81%	1
1313	30	*	1
1391	30	0.0/838aa/68.14%	1
1362	30	0.0/838aa/65.06%	1
1599	31	*	1
1452	30	2.97e-173/831aa/38.26%	1
259	30	2.38e-172/829aa/39.05%	1
333	30	2.38e-172/829aa/39.05%	1
679	30	0.0/840aa/54.65%	1
799	30	2.31e-171/854aa/38.57%	1
845	30	1.08e-169/854aa/38.69%	1
960	30	3.48e-170/854aa/38.69%	1
178	32	*	1
1136	30	0.0/825aa/46.72%	1
377	30	0.0/841aa/40.17%	1
548	30	3.98e-173/824aa/38.75%	1
1705	30	0.0/837aa/40.39%	1
1677	30	6.17e-164/849aa/38.97%	1
750	30	0.0/837aa/40.85%	1
895	30	4.37e-170/838aa/39.63%	1
577	30	9.84e-166/826aa/39.43%	1
1630	30	0.0/834aa/39.75%	1
1758	30	1.13e-176/834aa/39.9%	1
473	30	2.85e-162/824aa/37.15%	1
121	30	1.24e-126/867aa/37.17%	1
722	30	1.32e-152/841aa/40.05%	1
17	33	*	1
629	30	0.0/824aa/42.11%	1
305	30	1.32e-164/836aa/40.02%	1
1022	30	4.93e-141/833aa/36.74%	1
1182	30	1.42e-166/824aa/39.06%	1
38	30	0.0/827aa/42.27%	1
71	30	0.0/823aa/42.15%	1
165	30	4.12e-165/835aa/39.87%	1
443	30	0.0/817aa/43.52%	1
1273	30	0.0/817aa/43.52%	1
1524	30	0.0/824aa/43.65%	1
994	30	5.36e-179/821aa/39.82%	1
920	30	3.22e-166/836aa/41.4%	1
1070	30	3.22e-166/836aa/41.4%	1
1495	30	0.0/824aa/44.38%	1
97	34	*	1
1023	35	*	1
1783	36	*	1
306	37	*	1
1547	36	0.0/616aa/44.28%	1
547	38	*	1
1101	39	*	1
1451	40	*	1
635	39	2.50e-174/712aa/42.69%	1
603	39	1.59e-161/698aa/42.75%	1
642	39	5.72e-155/716aa/40.43%	1
31	41	*	1
1562	42	*	1
258	40	0.0/709aa/62.31%	1
334	40	0.0/709aa/62.31%	1
1206	43	*	1
193	30	0.0/673aa/62.94%	1
380	40	7.24e-152/340:281aa/58.35%	1
723	44	*	1
917	45	*	1
1073	45	0.0/662aa/100%	1
1629	46	*	1
1676	38	6.12e-90/313:160aa/31.72%	1
893	40	2.35e-156/331:280aa/58.72%	1
910	47	*	1
1079	47	0.0/659aa/100%	1
1598	48	*	1
1707	38	4.70e-101/386:180aa/40.21%	1
1392	49	*	1
1198	50	*	1
1223	38	4.78e-82/303:159aa/30.75%	1
1200	51	*	1
351	52	*	1
800	53	*	1
1196	54	*	1
844	53	0.0/633aa/93.78%	1
959	53	0.0/633aa/94.42%	1
227	55	*	1
1082	56	*	1
879	57	*	1
241	52	0.0/618aa/100%	1
442	58	*	1
1272	58	0.0/616aa/100%	1
578	40	3.74e-145/354:166aa/53.26%	1
752	38	0.0/383:178aa/63.81%	1
1179	59	*	1
32	60	*	1
175	61	*	1
303	62	*	1
318	63	*	1
721	59	1.23e-95/300:167aa/42.83%	1
1203	64	*	1
698	65	*	1
1137	38	1.30e-94/310:159aa/37.52%	1
677	49	1.64e-136/472aa/43.15%	1
1312	49	0.0/561aa/75.88%	1
1361	49	0.0/561aa/75.88%	1
1184	66	*	1
992	62	4.86e-159/431aa/47.61%	1
108	67	*	1
173	68	*	1
1494	58	0.0/541aa/68.57%	1
941	19	0.0/560aa/92.84%	1
1407	69	*	1
1035	70	*	1
1558	71	*	1
376	30	3.84e-133/583aa/39.92%	1
1437	72	*	1
797	71	3.35e-110/567aa/38.26%	1
847	71	6.67e-109/567aa/38.26%	1
962	71	1.90e-109/564aa/38.44%	1
1613	72	3.59e-123/504aa/43.14%	1
1759	58	1.74e-63/456aa/30.74%	1
1295	69	0.0/559aa/77.53%	1
1344	69	0.0/559aa/77.53%	1
177	73	*	1
1725	74	*	1
37	58	0.0/536aa/70.22%	1
70	58	0.0/532aa/70.03%	1
1661	75	*	1
1581	75	1.80e-71/500aa/33.88%	1
192	71	4.44e-94/545aa/35.97%	1
1315	71	2.33e-100/545aa/35.23%	1
1364	71	1.95e-101/545aa/35.6%	1
1387	71	4.91e-96/548aa/36.34%	1
474	58	0.0/553aa/68.2%	1
1525	58	0.0/516aa/66.41%	1
827	76	*	1
942	76	0.0/538aa/96.09%	1
1208	75	1.69e-100/506aa/38.66%	1
1772	77	*	1
1727	75	9.38e-67/518aa/32.96%	1
290	78	*	1
661	76	1.81e-66/504aa/34.39%	1
709	78	2.90e-60/456aa/31.02%	1
702	79	*	1
939	75	4.80e-86/521aa/38.08%	1
924	62	0.0/459aa/80.34%	1
1067	62	0.0/459aa/80.34%	1
1608	80	*	1
73	81	*	1
531	76	2.70e-47/490aa/32%	1
681	71	1.93e-122/546aa/41.09%	1
1167	67	2.81e-62/503aa/37.5%	1
1755	71	3.39e-121/551aa/42.61%	1
12	82	*	1
244	69	3.17e-45/364aa/30.6%	1
348	69	3.17e-45/364aa/30.6%	1
1254	70	4.74e-65/553aa/36.69%	1
768	70	4.50e-68/547aa/37.97%	1
374	81	3.71e-171/547aa/51.43%	1
976	76	3.30e-55/479aa/34.22%	1
1541	83	*	1
492	84	*	1
634	71	1.93e-129/547aa/44.72%	1
692	85	*	1
98	86	*	1
1476	83	1.02e-161/527aa/54.24%	1
748	81	9.04e-162/538aa/48.74%	1
1607	28	2.35e-74/516aa/34.04%	1
496	70	1.33e-73/543aa/38.95%	1
1085	70	3.65e-69/431aa/37.2%	1
57	70	3.46e-72/428aa/32.87%	1
428	87	*	1
1258	87	0.0/513aa/100%	1
120	88	*	1
1702	81	7.09e-169/536aa/50.39%	1
429	89	*	1
1259	89	0.0/508aa/100%	1
978	90	*	1
591	70	1.37e-88/540aa/39.52%	1
399	83	1.29e-114/510aa/44.64%	1
1405	91	*	1
1679	81	0.0/530aa/73.61%	1
493	92	*	1
1297	91	0.0/451aa/70.77%	1
1346	91	0.0/451aa/70.77%	1
152	93	*	1
876	83	1.93e-123/523aa/49.7%	1
1522	81	0.0/531aa/83.23%	1
195	49	0.0/500aa/82.8%	1
626	62	3.76e-86/371aa/35.87%	1
1455	81	0.0/529aa/86.77%	1
214	91	0.0/451aa/68.07%	1
471	81	0.0/528aa/84.93%	1
1751	94	*	1
1202	95	*	1
1497	81	0.0/529aa/84.7%	1
445	81	0.0/528aa/81.81%	1
1150	96	*	1
1275	81	0.0/528aa/81.81%	1
1675	97	*	1
732	98	*	1
1633	81	0.0/512aa/53.46%	1
1634	99	*	1
307	100	*	1
315	101	*	1
164	59	6.17e-57/283:118aa/33.47%	1
170	102	*	1
733	103	*	1
1699	104	*	1
1365	105	*	1
1628	106	*	1
381	97	4.33e-120/371aa/36.42%	1
1012	107	*	1
246	108	*	1
346	108	0.0/474aa/100%	1
1382	109	*	1
1138	97	0.0/363aa/54.02%	1
1003	110	*	1
1708	97	7.63e-135/359aa/40.68%	1
1480	111	*	1
1052	75	4.55e-79/483aa/40.17%	1
1222	97	1.53e-139/361aa/42.98%	1
753	97	1.46e-148/365aa/42.39%	1
1235	112	*	1
1011	113	*	1
1563	114	*	1
801	115	*	1
843	115	0.0/437aa/87.06%	1
958	115	0.0/437aa/87.28%	1
1216	116	*	1
1611	117	*	1
90	118	*	1
251	119	*	1
546	97	1.44e-144/371aa/42.6%	1
892	97	2.82e-118/371aa/38.63%	1
1024	120	*	1
691	121	*	1
257	97	1.35e-124/371aa/40.97%	1
335	97	1.35e-124/371aa/40.97%	1
1320	122	*	1
579	97	2.85e-131/369aa/42.69%	1
119	123	*	1
1450	97	3.15e-133/376aa/44.36%	1
101	124	*	1
1760	125	*	1
1178	123	5.60e-99/342aa/35.14%	1
396	126	*	1
676	127	*	1
387	119	3.60e-111/410aa/47.13%	1
1669	116	7.29e-115/441aa/45.41%	1
1299	128	*	1
1348	128	0.0/435aa/100%	1
1144	116	1.95e-99/452aa/42.39%	1
163	106	4.36e-59/389aa/30.25%	1
1393	127	1.75e-107/431aa/44.44%	1
849	129	*	1
1311	127	2.86e-105/362aa/41.99%	1
1360	127	5.52e-105/362aa/41.99%	1
1327	130	*	1
365	131	*	1
925	125	6.98e-95/353aa/40%	1
1066	125	6.98e-95/353aa/40%	1
341	119	0.0/421aa/99.05%	1
796	131	4.26e-62/384aa/33.8%	1
1191	132	*	1
820	133	*	1
848	131	4.42e-62/415aa/36.34%	1
963	131	4.81e-62/384aa/33.96%	1
205	134	*	1
475	125	2.85e-80/379aa/36.19%	1
585	119	2.47e-124/424aa/54.04%	1
1636	130	2.75e-113/390aa/41.66%	1
302	125	3.03e-94/354aa/40.09%	1
1493	125	2.49e-79/370aa/34.6%	1
1526	125	2.65e-76/419aa/37.23%	1
1340	135	*	1
624	125	4.90e-87/344aa/38.12%	1
191	105	0.0/416aa/91.1%	1
1316	105	0.0/416aa/100%	1
1746	136	*	1
1199	137	*	1
1321	131	3.21e-85/418aa/40.96%	1
441	125	4.52e-76/361aa/34.29%	1
497	138	*	1
701	139	*	1
783	140	*	1
871	141	*	1
1194	142	*	1
1271	125	4.52e-76/361aa/34.29%	1
1518	131	5.07e-125/419aa/51.69%	1
36	125	5.81e-79/365aa/35.59%	1
69	125	6.13e-79/365aa/35.59%	1
867	105	4.35e-106/378aa/41.64%	1
650	143	*	1
991	125	2.45e-91/369aa/41.01%	1
1326	144	*	1
463	131	1.28e-121/422aa/52.92%	1
1551	145	*	1
830	146	*	1
945	146	0.0/404aa/98.51%	1
886	119	4.52e-124/399aa/54.59%	1
1682	136	3.36e-75/396aa/39.2%	1
1559	10	3.09e-66/328aa/34.41%	1
1601	147	*	1
397	148	*	1
81	149	*	1
1386	130	1.03e-98/393aa/40.35%	1
309	150	*	1
688	131	3.08e-117/409aa/49.37%	1
8	151	*	1
878	148	2.41e-145/367aa/56.81%	1
1412	152	*	1
1778	153	*	1
620	154	*	1
232	155	*	1
361	155	0.0/391aa/100%	1
1323	156	*	1
1700	157	*	1
234	158	*	1
359	158	0.0/389aa/100%	1
743	136	2.38e-78/317aa/35.98%	1
1373	159	*	1
1536	160	*	1
998	136	1.80e-75/391aa/40.97%	1
1544	161	*	1
1674	162	*	1
1602	163	*	1
455	136	3.31e-71/316aa/35.32%	1
1285	136	3.31e-71/316aa/35.32%	1
1745	164	*	1
270	136	7.55e-78/303aa/36.48%	1
322	136	7.55e-78/303aa/36.48%	1
647	165	*	1
1439	160	1.34e-19/373aa/30.52%	1
1139	162	6.54e-176/367aa/60.05%	1
393	166	*	1
1210	167	*	1
80	136	5.84e-77/309aa/36.72%	1
766	160	2.25e-76/338aa/46.38%	1
1465	136	4.30e-76/312aa/37.53%	1
1481	168	*	1
553	169	*	1
1221	162	1.00e-69/331aa/31.72%	1
514	170	*	1
1133	136	5.35e-53/294aa/31.35%	1
1503	136	2.27e-77/311aa/37.29%	1
487	160	3.34e-111/338aa/52.03%	1
1664	171	*	1
663	172	*	1
430	160	2.45e-83/343aa/45.23%	1
1260	160	2.45e-83/343aa/45.23%	1
831	52	1.24e-42/386aa/34.15%	1
946	52	4.38e-42/384aa/33.87%	1
105	173	*	1
900	136	1.15e-72/350aa/39.66%	1
1564	174	*	1
1612	18	3.48e-75/337aa/35.81%	1
720	123	1.86e-98/341aa/42.1%	1
292	175	*	1
842	176	*	1
957	176	0.0/344aa/95.53%	1
704	98	1.72e-51/240:86aa/45.65%	1
802	176	0.0/343aa/91.31%	1
1709	177	*	1
1761	178	*	1
589	160	1.44e-59/327aa/40.84%	1
1539	148	8.90e-76/334aa/41.4%	1
392	160	1.91e-17/368aa/32.48%	1
494	179	*	1
678	180	*	1
868	165	3.91e-64/324aa/33.33%	1
237	181	*	1
355	181	0.0/353aa/100%	1
1757	182	*	1
414	165	1.44e-54/347aa/33.8%	1
1149	183	*	1
1723	184	*	1
780	185	*	1
1461	186	*	1
1478	148	5.72e-60/358aa/38.74%	1
545	177	4.44e-65/295aa/32.28%	1
754	177	1.58e-72/349aa/36.28%	1
1501	187	*	1
1712	188	*	1
599	165	2.78e-101/343aa/44.25%	1
675	189	*	1
1537	52	9.24e-37/367aa/34.48%	1
144	190	*	1
1498	186	1.02e-110/347aa/59.65%	1
1627	191	*	1
508	165	1.97e-89/347aa/42.19%	1
45	165	6.14e-96/346aa/43.18%	1
59	160	7.77e-50/369aa/42.31%	1
235	165	1.10e-83/342aa/37.97%	1
358	165	1.10e-83/342aa/37.97%	1
832	192	*	1
947	192	0.0/345aa/94.78%	1
1576	193	*	1
1587	194	*	1
198	189	3.03e-98/331aa/43.02%	1
812	195	*	1
1527	196	*	1
21	160	7.29e-119/345aa/55.68%	1
35	196	3.01e-160/344aa/73.46%	1
68	196	1.35e-159/344aa/72.88%	1
623	178	1.09e-53/323aa/32.06%	1
654	185	2.75e-109/344aa/49.56%	1
670	197	*	1
118	198	*	1
440	196	8.97e-151/344aa/67.25%	1
476	196	1.71e-147/344aa/66.95%	1
533	160	2.35e-36/357aa/38.01%	1
1270	196	8.97e-151/344aa/67.25%	1
1394	189	2.49e-95/332aa/45.61%	1
1492	196	5.07e-164/344aa/70.17%	1
1616	195	4.85e-46/282aa/32.45%	1
937	175	7.26e-46/295aa/36.65%	1
1054	175	7.26e-46/295aa/36.65%	1
1310	189	4.60e-92/327aa/42.81%	1
1359	189	4.60e-92/327aa/42.81%	1
162	199	*	1
229	200	*	1
301	178	2.61e-58/350aa/37.46%	1
364	200	0.0/339aa/100%	1
706	173	2.42e-48/339aa/33.03%	1
927	178	1.47e-58/350aa/37.46%	1
1064	178	1.47e-58/350aa/37.46%	1
719	201	*	1
1025	201	6.69e-51/274aa/30.76%	1
1177	201	2.90e-107/313aa/47.63%	1
711	202	*	1
990	178	7.50e-55/329aa/34.71%	1
1017	194	3.62e-59/333aa/32.34%	1
280	203	*	1
815	204	*	1
880	205	*	1
1449	162	4.70e-41/349aa/35.71%	1
1729	206	*	1
1155	185	5.50e-47/340aa/32.53%	1
1780	185	1.60e-66/339aa/35.82%	1
382	177	7.00e-50/301aa/33.03%	1
979	160	1.16e-35/264aa/31.83%	1
1169	202	6.86e-67/282aa/37.83%	1
1548	185	2.98e-71/341aa/36.33%	1
256	177	3.17e-49/302aa/33.73%	1
336	177	3.17e-49/302aa/33.73%	1
518	207	*	1
1736	194	4.27e-43/326aa/32.83%	1
266	208	*	1
326	208	0.0/331aa/100%	1
154	209	*	1
218	210	*	1
110	211	*	1
1033	212	*	1
1770	213	*	1
611	214	*	1
580	215	*	1
891	215	3.71e-110/310aa/61.46%	1
1083	216	*	1
630	182	5.57e-64/306aa/36.92%	1
1487	197	1.47e-42/298aa/30.46%	1
798	182	6.65e-91/314aa/44.44%	1
846	182	6.80e-88/314aa/43.2%	1
961	182	3.53e-87/314aa/43.2%	1
18	216	2.58e-27/290aa/31.67%	1
375	182	2.34e-60/321aa/36.33%	1
1444	119	3.68e-91/253aa/44.72%	1
313	217	*	1
549	182	6.73e-61/319aa/36.87%	1
657	218	*	1
749	182	1.78e-61/309aa/37.81%	1
829	219	*	1
944	219	0.0/320aa/95.62%	1
1704	182	7.89e-43/304aa/32.5%	1
1678	182	3.04e-46/305aa/30.5%	1
1631	182	3.58e-55/290aa/32.17%	1
39	182	5.28e-68/312aa/37.02%	1
72	182	1.39e-69/312aa/37.34%	1
427	210	1.96e-49/319aa/39.55%	1
435	119	1.41e-36/254aa/30.69%	1
1257	210	1.96e-49/319aa/39.55%	1
1265	119	1.41e-36/254aa/30.69%	1
1432	220	*	1
1523	182	1.35e-67/312aa/37.34%	1
25	197	5.57e-44/261aa/30.79%	1
1453	182	4.03e-49/308aa/33.65%	1
1496	182	8.50e-69/312aa/38.09%	1
1622	116	7.77e-43/297aa/30.79%	1
63	197	5.16e-44/261aa/31.21%	1
444	182	2.01e-76/314aa/40.44%	1
472	182	2.46e-50/291aa/32.16%	1
1274	182	2.01e-76/314aa/40.44%	1
1532	197	3.58e-43/258aa/30.25%	1
1766	116	2.92e-50/289aa/30.57%	1
260	182	9.74e-51/280aa/32.9%	1
332	182	4.94e-50/280aa/32.58%	1
481	221	*	1
837	222	*	1
952	222	0.0/313aa/97.76%	1
1192	223	*	1
1604	224	*	1
1569	222	3.88e-61/255aa/34.72%	1
421	10	1.74e-77/243aa/41.29%	1
424	70	4.49e-52/306aa/41.61%	1
1030	221	4.76e-59/268aa/35.48%	1
807	222	0.0/313aa/90.61%	1
86	225	*	1
1009	226	*	1
686	227	*	1
759	116	1.12e-73/318aa/42.81%	1
1305	197	2.09e-78/261aa/39.21%	1
1354	197	3.62e-79/261aa/39.21%	1
1715	116	2.20e-62/305aa/37.9%	1
113	221	1.62e-45/276aa/31.8%	1
203	197	1.09e-78/277aa/41.31%	1
540	116	7.50e-72/298aa/41.63%	1
7	228	*	1
179	229	*	1
856	230	*	1
1399	197	4.65e-79/261aa/39.47%	1
680	231	*	1
140	232	*	1
167	233	*	1
317	234	*	1
488	235	*	1
1172	221	4.62e-72/262aa/39.53%	1
1197	236	*	1
410	237	*	1
617	221	1.07e-79/272aa/41.8%	1
984	221	2.68e-70/274aa/38.46%	1
1470	238	*	1
1595	239	*	1
932	221	2.67e-74/276aa/40.06%	1
1059	221	2.67e-74/276aa/40.06%	1
296	221	1.32e-75/275aa/41.21%	1
1324	240	*	1
714	221	1.49e-60/253aa/36.73%	1
373	241	*	1
1034	242	*	1
1213	243	*	1
223	69	2.56e-120/275aa/66.78%	1
731	244	*	1
662	245	*	1
971	246	*	1
1204	247	*	1
1550	248	*	1
169	249	*	1
158	221	8.77e-51/259aa/37.76%	1
1420	250	*	1
877	245	5.76e-26/277aa/30.87%	1
515	251	*	1
608	75	1.12e-66/263aa/41.9%	1
1249	252	*	1
398	245	3.24e-27/276aa/31.91%	1
277	253	*	1
1156	153	2.32e-47/272aa/36.78%	1
1586	153	3.05e-29/262aa/32.61%	1
1614	254	*	1
682	255	*	1
226	256	*	1
99	257	*	1
1479	258	*	1
1662	259	*	1
1209	259	4.75e-83/277aa/48.54%	1
1232	260	*	1
1328	250	1.39e-140/259aa/76.27%	1
109	261	*	1
217	262	*	1
532	263	*	1
1540	263	9.45e-113/273aa/59.7%	1
89	264	*	1
186	265	*	1
221	263	8.58e-21/271aa/32.84%	1
245	263	4.56e-84/277aa/50.18%	1
347	263	4.56e-84/277aa/50.18%	1
943	259	6.87e-28/270aa/32.47%	1
190	266	*	1
261	241	8.99e-129/262aa/66.29%	1
331	241	8.99e-129/262aa/66.29%	1
470	241	7.63e-131/263aa/65.92%	1
828	259	9.77e-30/280aa/33.7%	1
1130	267	*	1
1456	241	6.83e-133/262aa/67.03%	1
1696	241	1.52e-79/259aa/48.51%	1
1722	268	*	1
446	241	3.95e-127/263aa/66.54%	1
1276	241	3.95e-127/263aa/66.54%	1
1477	263	1.78e-113/274aa/62.45%	1
87	269	*	1
525	153	1.29e-34/228aa/30.59%	1
1580	254	3.19e-33/245aa/30.97%	1
285	153	2.51e-26/262aa/32.95%	1
1406	263	1.18e-22/262aa/31.83%	1
1556	270	*	1
275	271	*	1
1385	272	*	1
1438	254	1.64e-62/246aa/39.47%	1
1658	153	3.36e-39/244aa/30.82%	1
505	153	9.03e-31/230aa/30.18%	1
977	273	*	1
1296	263	5.11e-20/263aa/31.69%	1
1345	263	5.11e-20/263aa/31.69%	1
1427	153	3.01e-30/230aa/30.18%	1
1609	274	*	1
16	245	2.69e-34/262aa/31.06%	1
94	275	*	1
222	69	1.71e-122/254aa/82.57%	1
710	254	5.72e-16/269aa/30.68%	1
1244	246	1.22e-27/235aa/30.3%	1
1469	153	2.23e-55/255aa/40.53%	1
10	153	7.01e-47/257aa/41.06%	1
53	153	8.39e-46/262aa/41.82%	1
495	263	5.04e-43/237aa/35.36%	1
667	276	*	1
735	277	*	1
778	278	*	1
656	153	8.33e-58/248aa/41.98%	1
1008	279	*	1
1255	245	2.41e-36/261aa/32.44%	1
554	280	*	1
816	273	9.74e-75/230aa/44.44%	1
1645	281	*	1
767	259	3.13e-22/246aa/31.15%	1
130	282	*	1
58	263	1.62e-38/218aa/32.17%	1
1374	283	*	1
1515	284	*	1
153	261	4.62e-46/207aa/31.12%	1
459	285	*	1
484	286	*	1
1771	261	7.66e-18/265aa/31.12%	1
215	287	*	1
590	245	3.04e-40/246aa/32.42%	1
764	288	*	1
817	33	1.89e-39/260aa/41.01%	1
1220	289	*	1
395	290	*	1
609	259	2.62e-47/280aa/41.17%	1
1666	291	*	1
390	286	5.05e-48/231aa/38.58%	1
419	10	6.67e-21/235aa/35.43%	1
1147	291	1.28e-75/251aa/44.09%	1
1615	292	*	1
291	259	4.25e-31/244aa/34.78%	1
1084	263	7.74e-42/232aa/37.15%	1
1168	293	*	1
1538	294	*	1
408	295	*	1
1372	296	*	1
803	297	*	1
841	297	1.02e-144/251aa/87.25%	1
956	297	1.55e-145/251aa/87.25%	1
1032	298	*	1
1088	299	*	1
95	300	*	1
196	127	3.70e-70/239aa/47.79%	1
536	288	5.51e-69/215aa/42.16%	1
593	299	8.51e-65/250aa/40.96%	1
818	39	6.64e-42/261aa/39.35%	1
1292	301	*	1
1341	301	1.71e-175/249aa/100%	1
1673	302	*	1
209	303	*	1
426	268	1.28e-28/187aa/32.25%	1
689	304	*	1
1256	268	1.28e-28/187aa/32.25%	1
1383	305	*	1
394	306	*	1
1140	302	1.15e-97/221aa/57.89%	1
1724	287	2.96e-41/223aa/31.57%	1
1769	307	*	1
1301	303	1.06e-97/232aa/67.47%	1
1350	303	1.06e-97/232aa/67.47%	1
755	308	*	1
922	309	*	1
1069	309	0.0/244aa/100%	1
1402	303	1.29e-99/232aa/67.21%	1
1720	288	8.05e-37/217aa/30.32%	1
1442	286	1.13e-51/241aa/42.79%	1
1454	310	*	1
1603	311	*	1
858	312	*	1
1170	313	*	1
1118	314	*	1
1652	315	*	1
792	316	*	1
854	316	2.13e-171/240aa/96.25%	1
1565	317	*	1
1781	318	*	1
150	319	*	1
156	320	*	1
787	312	1.25e-134/240aa/82%	1
544	308	4.76e-87/224aa/55.88%	1
1560	182	7.14e-38/211aa/33.19%	1
111	321	*	1
247	286	5.81e-45/226aa/35.86%	1
345	286	5.81e-45/226aa/35.86%	1
1026	322	*	1
1512	285	9.72e-74/245aa/50.84%	1
1514	323	*	1
535	286	6.99e-53/235aa/42.12%	1
814	324	*	1
938	259	1.56e-47/233aa/37.44%	1
1053	259	1.56e-47/233aa/37.44%	1
1205	325	*	1
1710	308	3.59e-47/224aa/37.44%	1
1726	259	1.50e-30/231aa/32.34%	1
409	128	9.68e-22/234aa/31.62%	1
883	286	1.43e-53/199aa/38.88%	1
1534	286	4.80e-53/233aa/43.58%	1
20	326	*	1
659	327	*	1
712	313	8.54e-47/193aa/35.34%	1
1459	328	*	1
1	128	2.46e-24/234aa/32.03%	1
1291	329	*	1
1317	330	*	1
1366	330	5.17e-170/230aa/100%	1
1484	286	8.16e-90/229aa/60.43%	1
1637	330	1.42e-121/231aa/73.04%	1
134	331	*	1
813	332	*	1
383	333	*	1
432	286	2.48e-89/228aa/63.15%	1
1262	286	2.48e-89/228aa/63.15%	1
1545	334	*	1
75	335	*	1
188	330	2.75e-112/228aa/71.36%	1
450	328	9.27e-104/222aa/74%	1
1280	328	9.27e-104/222aa/74%	1
14	327	7.50e-37/210aa/34.95%	1
189	336	*	1
587	286	5.25e-48/229aa/42.22%	1
725	337	*	1
810	338	*	1
834	338	2.45e-146/225aa/92.88%	1
949	338	1.23e-146/225aa/92.88%	1
1378	336	4.90e-105/225aa/63.55%	1
132	312	1.22e-16/229aa/30.35%	1
1435	339	*	1
1472	340	*	1
1762	341	*	1
255	333	6.29e-89/224aa/59.64%	1
337	333	6.29e-89/224aa/59.64%	1
556	342	*	1
1251	339	2.43e-96/224aa/61.43%	1
128	343	*	1
528	339	1.72e-99/224aa/63.96%	1
581	333	1.01e-83/228aa/54.95%	1
825	344	*	1
1618	307	2.08e-32/152aa/31.98%	1
1663	340	2.04e-49/211aa/45.49%	1
240	345	*	1
352	345	5.93e-136/221aa/100%	1
467	346	*	1
890	333	1.42e-80/208aa/53.39%	1
1448	333	8.37e-72/227aa/52.03%	1
1543	347	*	1
225	301	1.63e-134/219aa/89.49%	1
923	348	*	1
1189	349	*	1
1409	301	2.09e-124/219aa/82.64%	1
1579	350	*	1
100	351	*	1
308	352	*	1
631	336	4.70e-43/208aa/38.07%	1
55	327	1.00e-65/204aa/46.54%	1
1050	353	*	1
23	354	*	1
61	354	1.30e-137/216aa/96.29%	1
456	355	*	1
560	356	*	1
1000	357	*	1
1286	355	6.09e-152/216aa/100%	1
1626	297	2.30e-48/146aa/32.4%	1
401	347	1.40e-45/199aa/41.39%	1
696	358	*	1
1573	359	*	1
613	338	4.14e-22/212aa/31.3%	1
974	344	8.94e-38/189aa/30.98%	1
187	360	*	1
872	361	*	1
1163	362	*	1
146	363	*	1
293	364	*	1
520	365	*	1
907	366	*	1
935	364	8.80e-135/211aa/90.99%	1
1056	364	8.80e-135/211aa/90.99%	1
1238	367	*	1
161	368	*	1
490	287	3.43e-42/233aa/38.57%	1
742	369	*	1
685	370	*	1
51	371	*	1
85	372	*	1
176	373	*	1
425	245	1.32e-33/204aa/33.98%	1
602	374	*	1
1620	375	*	1
1659	327	7.14e-17/203aa/31.55%	1
864	376	*	1
981	377	*	1
1395	378	*	1
918	379	*	1
1384	380	*	1
622	341	1.36e-40/169aa/35.46%	1
643	374	6.44e-50/187aa/44.33%	1
1322	381	*	1
88	382	*	1
969	383	*	1
1040	384	*	1
136	385	*	1
242	386	*	1
316	387	*	1
350	386	3.10e-70/142aa/70.64%	1
1161	379	2.20e-19/179aa/31.34%	1
199	378	5.24e-127/200aa/82.5%	1
216	388	*	1
447	389	*	1
555	390	*	1
747	389	2.44e-98/200aa/69.49%	1
770	347	5.68e-39/213aa/44%	1
1277	389	2.80e-139/200aa/100%	1
1309	378	1.42e-122/201aa/81.49%	1
1358	378	2.21e-122/201aa/80.5%	1
1590	391	*	1
1597	392	*	1
83	393	*	1
300	341	1.20e-24/164aa/30.15%	1
674	378	8.08e-53/191aa/39.19%	1
874	327	2.50e-26/196aa/34.17%	1
988	341	4.32e-28/175aa/32.66%	1
1046	394	*	1
928	341	1.36e-29/164aa/31.81%	1
972	395	*	1
1063	341	1.36e-29/164aa/31.81%	1
288	327	1.08e-20/197aa/32.99%	1
738	396	*	1
1100	397	*	1
1187	398	*	1
1555	399	*	1
521	400	*	1
1072	379	3.55e-119/196aa/100%	1
34	401	*	1
67	401	1.16e-133/195aa/98.46%	1
477	401	1.10e-101/192aa/72.82%	1
904	369	2.91e-98/207aa/70.76%	1
1528	401	1.53e-99/195aa/72.82%	1
117	322	5.12e-41/149aa/32.98%	1
862	402	*	1
1491	401	6.68e-96/187aa/77.83%	1
1644	403	*	1
439	401	2.76e-90/189aa/71.5%	1
1068	348	1.43e-122/193aa/99.48%	1
1269	401	2.76e-90/189aa/71.5%	1
1583	327	6.15e-19/204aa/33.67%	1
197	404	*	1
605	405	*	1
2	295	3.29e-33/183aa/50.26%	1
517	406	*	1
91	407	*	1
573	408	*	1
1103	409	*	1
1154	410	*	1
52	395	5.31e-11/166aa/36.17%	1
148	411	*	1
231	412	*	1
362	412	3.83e-121/188aa/100%	1
1336	413	*	1
1646	414	*	1
1777	395	2.63e-27/204aa/40.95%	1
104	415	*	1
138	416	*	1
633	417	*	1
230	418	*	1
363	418	1.85e-115/186aa/97.31%	1
718	322	2.05e-40/170aa/38.17%	1
1037	419	*	1
1176	322	3.39e-44/157aa/39.24%	1
500	327	3.26e-19/196aa/36.95%	1
964	420	*	1
1768	421	*	1
3	422	*	1
28	423	*	1
284	424	*	1
457	403	3.66e-37/142aa/35.51%	1
506	424	5.48e-25/180aa/34.42%	1
552	425	*	1
1287	403	3.66e-37/142aa/35.51%	1
294	426	*	1
648	427	*	1
912	428	*	1
934	426	9.94e-128/182aa/97.25%	1
1057	426	9.94e-128/182aa/97.25%	1
1077	428	4.23e-134/182aa/100%	1
504	429	*	1
526	429	8.64e-86/181aa/72.37%	1
777	429	1.08e-93/181aa/75.69%	1
916	430	*	1
1074	430	2.70e-128/181aa/100%	1
1245	429	7.03e-99/181aa/79.55%	1
1428	429	1.64e-99/181aa/79%	1
304	431	*	1
391	432	*	1
41	433	*	1
129	434	*	1
940	435	*	1
615	421	8.52e-40/184aa/44.38%	1
1193	436	*	1
1552	437	*	1
561	438	*	1
982	426	3.38e-69/181aa/59.88%	1
1119	389	7.64e-33/180aa/38.41%	1
1325	439	*	1
511	440	*	1
936	441	*	1
1414	413	1.53e-67/178aa/65.34%	1
1721	442	*	1
1774	443	*	1
1776	395	9.54e-24/127aa/33.52%	1
19	444	*	1
819	445	*	1
1474	327	2.62e-27/190aa/41.14%	1
1226	71	7.59e-19/175aa/36.2%	1
1422	446	*	1
76	447	*	1
411	448	*	1
558	447	1.56e-98/173aa/82.65%	1
980	441	3.18e-22/162aa/34.1%	1
1410	449	*	1
1468	450	*	1
458	451	*	1
513	452	*	1
1164	453	*	1
1553	454	*	1
356	455	*	1
462	456	*	1
372	457	*	1
915	458	*	1
1075	458	1.45e-123/170aa/100%	1
1246	459	*	1
1511	460	*	1
40	81	6.97e-100/140aa/81.06%	1
263	457	1.35e-95/165aa/78.44%	1
329	457	1.35e-95/165aa/78.44%	1
1151	461	*	1
1694	462	*	1
1425	463	*	1
168	464	*	1
503	459	4.27e-56/164aa/58.78%	1
1087	465	*	1
1117	466	*	1
1127	467	*	1
1186	458	2.82e-25/152aa/35.75%	1
1429	459	3.42e-73/157aa/60.6%	1
1731	395	2.47e-26/140aa/35.75%	1
639	468	*	1
727	458	6.72e-19/147aa/32.92%	1
1380	469	*	1
180	296	8.61e-81/166aa/69.93%	1
468	457	1.96e-70/165aa/64.41%	1
1055	441	2.05e-104/163aa/100%	1
1457	457	1.76e-83/165aa/72.39%	1
652	470	*	1
902	471	*	1
1554	472	*	1
911	473	*	1
1078	473	1.20e-96/161aa/100%	1
779	474	*	1
49	475	*	1
142	476	*	1
143	477	*	1
423	478	*	1
174	479	*	1
84	480	*	1
1426	463	8.20e-44/161aa/64.1%	1
655	481	*	1
921	482	*	1
1779	483	*	1
1375	484	*	1
24	485	*	1
62	485	5.35e-103/152aa/96.71%	1
139	486	*	1
596	465	1.34e-21/128aa/30.92%	1
728	487	*	1
422	10	1.93e-18/117aa/31.78%	1
903	488	*	1
1370	489	*	1
1533	485	4.53e-56/154aa/57.61%	1
1639	489	1.98e-96/151aa/89.4%	1
74	490	*	1
482	485	3.83e-51/153aa/53.33%	1
1233	491	*	1
1519	490	6.82e-83/150aa/72.66%	1
194	30	9.09e-39/100aa/51.67%	1
1081	492	*	1
1486	485	2.82e-57/153aa/66.44%	1
9	450	9.65e-13/143aa/44.59%	1
183	489	2.83e-94/147aa/88.51%	1
311	493	*	1
464	494	*	1
973	395	3.21e-19/108aa/32.43%	1
1159	424	2.05e-18/155aa/38.51%	1
1215	495	*	1
1229	496	*	1
273	497	*	1
434	485	1.74e-40/154aa/50.34%	1
522	365	1.82e-19/116aa/36.05%	1
524	450	2.21e-10/118aa/42.85%	1
665	498	*	1
1264	485	1.74e-40/154aa/50.34%	1
112	499	*	1
645	500	*	1
782	501	*	1
1135	502	*	1
1388	503	*	1
1227	496	2.51e-26/147aa/35.17%	1
1381	504	*	1
1585	395	4.63e-27/192aa/52.41%	1
1145	495	1.45e-35/113aa/39.16%	1
1329	505	*	1
1390	506	*	1
1557	489	4.48e-20/120aa/34.96%	1
1668	495	9.44e-35/123aa/37.76%	1
1732	507	*	1
1655	508	*	1
448	509	*	1
1031	510	*	1
1278	509	7.17e-103/141aa/100%	1
1458	509	3.60e-81/141aa/78.01%	1
1606	511	*	1
1747	512	*	1
454	513	*	1
486	432	1.01e-25/88aa/32.85%	1
1112	514	*	1
1284	513	6.32e-80/140aa/100%	1
1640	515	*	1
1740	516	*	1
286	424	1.88e-35/179aa/59.71%	1
598	517	*	1
765	518	*	1
1243	508	8.53e-20/79aa/30.21%	1
703	519	*	1
1105	520	*	1
1109	521	*	1
1160	522	*	1
1162	523	*	1
1441	498	5.06e-21/110aa/31.88%	1
1584	395	4.52e-24/124aa/44.2%	1
1688	524	*	1
287	424	2.05e-41/184aa/63.5%	1
319	497	3.58e-70/137aa/98.54%	1
700	525	*	1
729	526	*	1
788	527	*	1
1389	528	*	1
1693	529	*	1
534	432	1.52e-24/111aa/37.5%	1
1099	530	*	1
1158	424	5.99e-24/102aa/37.5%	1
1252	327	2.29e-19/131aa/33.82%	1
1482	498	4.00e-16/115aa/32.35%	1
1684	531	*	1
1692	532	*	1
145	533	*	1
166	534	*	1
403	535	*	1
588	518	3.05e-12/108aa/31.85%	1
996	536	*	1
1171	537	*	1
1419	505	4.44e-62/143aa/73.33%	1
1718	495	1.00e-29/116aa/36.29%	1
405	429	7.40e-64/120aa/72.18%	1
537	495	3.14e-25/132aa/37.59%	1
762	495	7.24e-23/119aa/33.83%	1
881	432	1.32e-31/124aa/44.36%	1
908	538	*	1
1042	539	*	1
1131	540	*	1
1314	541	*	1
1653	459	2.94e-07/157aa/35.33%	1
1695	542	*	1
157	510	3.23e-18/112aa/32.57%	1
279	543	*	1
453	544	*	1
736	545	*	1
790	546	*	1
1225	547	*	1
1283	544	5.67e-98/132aa/100%	1
1463	548	*	1
1500	549	*	1
901	550	*	1
1038	551	*	1
1039	552	*	1
1051	553	*	1
1434	554	*	1
233	555	*	1
360	555	5.00e-98/130aa/100%	1
1001	556	*	1
1129	557	*	1
1535	498	2.19e-18/107aa/31.53%	1
999	558	*	1
1157	424	3.49e-19/116aa/37.98%	1
1521	559	*	1
1656	508	5.82e-39/143aa/61.24%	1
641	560	*	1
909	561	*	1
1080	561	2.07e-74/128aa/100%	1
1123	562	*	1
1302	563	*	1
1351	563	1.66e-89/128aa/100%	1
1401	563	5.61e-83/128aa/90.62%	1
1657	508	3.27e-34/140aa/57.81%	1
124	564	*	1
208	563	6.43e-61/124aa/76.37%	1
431	565	*	1
1195	566	*	1
1261	565	1.08e-89/127aa/100%	1
465	559	1.98e-15/114aa/42.06%	1
995	553	6.13e-10/123aa/38.09%	1
1044	567	*	1
1095	568	*	1
1319	569	*	1
1368	569	1.05e-88/126aa/98.41%	1
1505	570	*	1
1513	571	*	1
1570	572	*	1
276	573	*	1
786	574	*	1
793	575	*	1
822	560	9.96e-25/116aa/35.2%	1
850	575	1.50e-79/123aa/85.6%	1
859	574	1.41e-73/125aa/80%	1
896	559	9.10e-24/129aa/49.6%	1
1014	576	*	1
1304	577	*	1
1719	578	*	1
184	569	1.98e-57/123aa/66.93%	1
576	559	2.43e-18/126aa/44.35%	1
668	563	7.13e-42/115aa/49.19%	1
607	579	*	1
636	580	*	1
791	581	*	1
852	582	*	1
855	581	3.05e-70/123aa/84.55%	1
1185	583	*	1
1421	584	*	1
1499	559	3.95e-21/117aa/47.15%	1
1566	585	*	1
1593	586	*	1
1594	587	*	1
1691	567	3.06e-64/117aa/72.35%	1
1739	588	*	1
507	589	*	1
595	508	9.49e-14/119aa/34.42%	1
695	590	*	1
869	568	1.23e-35/107aa/45.08%	1
1091	591	*	1
265	559	3.13e-26/122aa/56.19%	1
327	559	3.13e-26/122aa/56.19%	1
808	485	1.53e-13/121aa/33.05%	1
836	563	1.00e-11/119aa/33.88%	1
951	563	1.25e-11/119aa/33.88%	1
1462	559	3.44e-18/127aa/45.45%	1
1625	592	*	1
106	593	*	1
550	594	*	1
1181	559	1.74e-20/120aa/42.5%	1
1433	589	9.32e-25/100aa/41.66%	1
466	595	*	1
1376	596	*	1
1510	597	*	1
418	339	4.84e-42/108aa/57.62%	1
1703	598	*	1
1711	599	*	1
586	495	1.16e-16/115aa/35.89%	1
785	600	*	1
885	495	1.03e-17/100aa/31.62%	1
1027	601	*	1
1097	602	*	1
1752	603	*	1
125	604	*	1
1467	589	1.28e-32/118aa/48.27%	1
1717	605	*	1
378	606	*	1
853	568	2.95e-18/101aa/34.78%	1
1019	602	1.09e-52/110aa/60%	1
644	607	*	1
539	608	*	1
1188	609	*	1
1230	610	*	1
1460	611	*	1
1689	612	*	1
1697	613	*	1
1706	614	*	1
30	615	*	1
50	616	*	1
567	617	*	1
640	618	*	1
1148	619	*	1
1219	620	*	1
1290	621	*	1
1339	621	2.77e-71/97aa/87.38%	1
6	622	*	1
628	623	*	1
724	624	*	1
761	605	4.94e-23/72aa/41.81%	1
1228	625	*	1
1654	626	*	1
386	627	*	1
861	628	*	1
1124	629	*	1
1744	630	*	1
46	568	2.28e-39/107aa/55.55%	1
1090	626	1.29e-44/108aa/63.88%	1
1734	631	*	1
1754	632	*	1
538	605	1.58e-18/65aa/35.51%	1
694	633	*	1
760	608	1.86e-38/105aa/62.61%	1
795	634	*	1
1742	635	*	1
78	636	*	1
207	637	*	1
212	638	*	1
582	639	*	1
616	640	*	1
1132	528	4.26e-26/103aa/45.28%	1
1142	641	*	1
1303	637	1.77e-39/90aa/67.92%	1
1352	637	1.77e-39/90aa/67.92%	1
1400	637	7.88e-40/90aa/66.98%	1
1592	642	*	1
1713	643	*	1
1716	608	1.96e-17/102aa/42.45%	1
1738	644	*	1
135	645	*	1
385	646	*	1
417	339	5.68e-35/95aa/52.38%	1
420	647	*	1
583	646	1.04e-31/105aa/49.52%	1
888	646	3.99e-49/105aa/61.9%	1
1431	648	*	1
1446	646	6.03e-39/105aa/52.38%	1
102	649	*	1
252	627	3.01e-24/65aa/45.19%	1
340	627	3.01e-24/65aa/45.19%	1
993	650	*	1
1619	651	*	1
149	652	*	1
211	653	*	1
523	648	1.97e-29/93aa/49.51%	1
543	654	*	1
601	500	6.25e-10/78aa/30.09%	1
606	655	*	1
751	656	*	1
1018	657	*	1
1020	658	*	1
1190	659	*	1
1218	660	*	1
1530	661	*	1
1671	641	4.00e-26/86aa/43.68%	1
1680	662	*	1
253	646	2.42e-47/97aa/63.72%	1
281	663	*	1
339	646	2.42e-47/97aa/63.72%	1
502	648	1.07e-32/97aa/51.96%	1
638	664	*	1
669	665	*	1
773	648	5.97e-34/97aa/55.88%	1
870	666	*	1
983	640	3.11e-11/86aa/39.21%	1
1108	667	*	1
1128	668	*	1
1621	669	*	1
1647	670	*	1
565	671	*	1
887	627	1.13e-25/63aa/48.51%	1
1445	627	1.49e-21/62aa/41.58%	1
775	672	*	1
781	673	*	1
1094	666	4.03e-18/94aa/36%	1
1763	585	9.82e-13/72aa/31%	1
1764	674	*	1
42	675	*	1
283	676	*	1
406	673	7.11e-15/93aa/33.33%	1
413	677	*	1
437	661	3.50e-25/103aa/51.51%	1
479	661	8.82e-33/103aa/62.62%	1
740	678	*	1
913	679	*	1
919	680	*	1
1071	680	6.73e-68/99aa/100%	1
1115	681	*	1
1120	682	*	1
1267	661	3.50e-25/103aa/51.51%	1
1298	683	*	1
1347	683	5.51e-69/99aa/100%	1
1489	661	1.62e-21/103aa/57.57%	1
1549	684	*	1
1575	685	*	1
1588	686	*	1
236	687	*	1
357	687	6.03e-57/98aa/100%	1
449	241	3.29e-18/95aa/38.77%	1
625	688	*	1
882	689	*	1
1098	690	*	1
1279	241	3.29e-18/95aa/38.77%	1
1333	691	*	1
1416	691	3.73e-48/98aa/71.42%	1
1571	692	*	1
27	661	1.34e-23/89aa/44.32%	1
65	661	9.46e-24/89aa/46.39%	1
213	683	4.86e-55/94aa/80.41%	1
314	693	*	1
451	611	1.29e-18/110aa/47.42%	1
489	694	*	1
542	643	1.04e-23/82aa/38.14%	1
726	695	*	1
734	696	*	1
757	643	1.69e-24/82aa/38.14%	1
823	697	*	1
1116	698	*	1
1175	699	*	1
1281	611	1.29e-18/110aa/47.42%	1
1397	700	*	1
1404	683	1.19e-50/94aa/73.19%	1
172	701	*	1
509	687	2.79e-48/93aa/84.37%	1
584	627	5.00e-16/62aa/41.66%	1
619	702	*	1
756	654	5.75e-35/77aa/53.12%	1
863	687	1.05e-45/93aa/81.25%	1
914	679	2.00e-29/79aa/47.91%	1
967	703	*	1
1021	704	*	1
1076	679	2.00e-29/79aa/47.91%	1
1665	705	*	1
1685	706	*	1
707	690	2.00e-15/93aa/38.94%	1