1660	0	*	1
1408	1	*	1
1582	1	1.29e-44/899aa/16.08%	1
1036	1	1.22e-58/1347aa/24.05%	1
975	2	*	1
289	1	9.12e-46/878aa/15.56%	1
1166	1	3.49e-51/927aa/17.46%	1
1294	1	0.0/1333aa/41.73%	1
1343	1	0.0/1333aa/41.73%	1
1201	3	*	1
610	1	3.83e-71/882aa/18.63%	1
708	1	1.46e-42/849aa/16.46%	1
1239	1	5.06e-64/900aa/20%	1
96	4	*	1
282	5	*	1
224	1	0.0/945:62aa/40.31%	1
1086	1	1.20e-61/902aa/19.63%	1
137	6	*	1
660	1	1.14e-66/1213aa/27.34%	1
1253	1	1.09e-61/967aa/21.44%	1
243	1	5.08e-82/1046aa/24.39%	1
349	1	5.08e-82/1046aa/24.39%	1
56	1	2.00e-74/1303aa/28.59%	1
1728	1	2.17e-37/868aa/17.76%	1
107	1	7.61e-48/894aa/19.7%	1
592	1	7.61e-75/1324aa/28.09%	1
368	6	6.92e-52/659aa/15.02%	1
529	1	1.34e-74/1281aa/28.58%	1
1436	1	3.16e-59/828aa/18.41%	1
826	2	1.42e-86/905aa/23.7%	1
1413	7	*	1
415	6	5.86e-51/592:299aa/21.45%	1
151	8	*	1
512	7	1.19e-70/1082aa/26.95%	1
400	1	6.71e-68/929aa/22.28%	1
1337	7	0.0/1153aa/85.2%	1
1288	7	0.0/1148aa/85.22%	1
1475	1	1.78e-67/895aa/22.65%	1
1542	1	6.61e-72/897aa/23.38%	1
875	1	2.54e-66/906aa/21.6%	1
15	1	8.81e-66/917aa/24.49%	1
1502	9	*	1
530	1	2.13e-71/884aa/23.59%	1
1773	1	1.90e-50/878aa/21.82%	1
769	1	9.83e-68/894aa/24.49%	1
690	10	*	1
516	11	*	1
498	1	1.56e-70/933aa/29.1%	1
1605	12	*	1
1561	13	*	1
1207	0	1.29e-100/867aa/31.81%	1
1313	14	*	1
1391	14	0.0/838aa/68.14%	1
1362	14	0.0/838aa/65.06%	1
1599	12	7.32e-38/618aa/22.08%	1
1452	14	2.97e-173/831aa/38.26%	1
259	14	2.38e-172/829aa/39.05%	1
333	14	2.38e-172/829aa/39.05%	1
679	14	0.0/840aa/54.65%	1
799	14	2.31e-171/854aa/38.57%	1
845	14	1.08e-169/854aa/38.69%	1
960	14	3.48e-170/854aa/38.69%	1
178	15	*	1
1136	14	0.0/825aa/46.72%	1
377	14	0.0/841aa/40.17%	1
548	14	3.98e-173/824aa/38.75%	1
1705	14	0.0/837aa/40.39%	1
1677	14	6.17e-164/849aa/38.97%	1
750	14	0.0/837aa/40.85%	1
895	14	4.37e-170/838aa/39.63%	1
577	14	9.84e-166/826aa/39.43%	1
1630	14	0.0/834aa/39.75%	1
1758	14	1.13e-176/834aa/39.9%	1
473	14	2.85e-162/824aa/37.15%	1
121	14	1.24e-126/867aa/37.17%	1
722	14	1.32e-152/841aa/40.05%	1
17	16	*	1
629	14	0.0/824aa/42.11%	1
305	14	1.32e-164/836aa/40.02%	1
1022	14	4.93e-141/833aa/36.74%	1
1182	14	1.42e-166/824aa/39.06%	1
38	14	0.0/827aa/42.27%	1
71	14	0.0/823aa/42.15%	1
165	14	4.12e-165/835aa/39.87%	1
443	14	0.0/817aa/43.52%	1
1273	14	0.0/817aa/43.52%	1
1524	14	0.0/824aa/43.65%	1
994	14	5.36e-179/821aa/39.82%	1
920	14	3.22e-166/836aa/41.4%	1
1070	14	3.22e-166/836aa/41.4%	1
1495	14	0.0/824aa/44.38%	1
97	17	*	1
1023	18	*	1
1783	19	*	1
306	20	*	1
1547	19	0.0/616aa/44.28%	1
547	18	6.42e-21/285:272aa/21.32%	1
1101	21	*	1
1451	18	1.31e-14/219:296aa/20.67%	1
635	21	2.50e-174/712aa/42.69%	1
603	21	1.59e-161/698aa/42.75%	1
642	21	5.72e-155/716aa/40.43%	1
31	22	*	1
1562	23	*	1
258	18	1.71e-14/296:222aa/19.43%	1
334	18	1.71e-14/296:222aa/19.43%	1
1206	24	*	1
193	14	0.0/673aa/62.94%	1
380	18	4.02e-13/214:300aa/20.29%	1
723	25	*	1
917	26	*	1
1073	26	0.0/662aa/100%	1
1629	23	5.00e-42/296:142aa/21.75%	1
1676	27	*	1
893	27	1.33e-72/302:168aa/27.92%	1
910	28	*	1
1079	28	0.0/659aa/100%	1
1598	29	*	1
1707	27	2.34e-72/317:169aa/30.95%	1
1392	30	*	1
1198	31	*	1
1223	27	3.46e-104/325:212aa/37.24%	1
1200	32	*	1
351	33	*	1
800	23	2.83e-47/308:93aa/22.27%	1
1196	34	*	1
844	23	5.59e-45/305:93aa/21.81%	1
959	23	3.91e-44/302:93aa/21.33%	1
227	35	*	1
1082	36	*	1
879	37	*	1
241	33	0.0/618aa/100%	1
442	30	4.04e-37/436aa/21.1%	1
1272	30	4.04e-37/436aa/21.1%	1
578	27	5.41e-91/618aa/34.96%	1
752	27	3.03e-112/625aa/38.48%	1
1179	18	1.18e-55/305:131aa/27.43%	1
32	38	*	1
175	39	*	1
303	30	2.65e-34/319aa/16.8%	1
318	40	*	1
721	18	1.11e-49/312:92aa/26.64%	1
1203	41	*	1
698	42	*	1
1137	27	2.38e-175/337:238aa/62.12%	1
677	30	1.64e-136/472aa/43.15%	1
1312	30	0.0/561aa/75.88%	1
1361	30	0.0/561aa/75.88%	1
1184	43	*	1
992	30	4.92e-30/385aa/20%	1
108	16	7.09e-44/292aa/19.07%	1
173	44	*	1
1494	30	2.25e-33/426aa/22.85%	1
941	2	3.62e-58/520aa/30.23%	1
1407	16	4.95e-21/265aa/16.45%	1
1035	16	3.91e-46/276aa/19.56%	1
1558	45	*	1
376	14	3.84e-133/583aa/39.92%	1
1437	16	1.31e-36/278aa/18.52%	1
797	45	3.35e-110/567aa/38.26%	1
847	45	6.67e-109/567aa/38.26%	1
962	45	1.90e-109/564aa/38.44%	1
1613	16	2.54e-32/285aa/18.41%	1
1759	30	8.04e-26/390aa/20.07%	1
1295	16	6.19e-30/251aa/17.75%	1
1344	16	6.19e-30/251aa/17.75%	1
177	46	*	1
1725	47	*	1
37	30	1.80e-29/447aa/24.63%	1
70	30	6.00e-31/440aa/24.26%	1
1661	16	1.52e-35/339aa/20.22%	1
1581	16	4.65e-39/286:236aa/33.33%	1
192	45	4.44e-94/545aa/35.97%	1
1315	45	2.33e-100/545aa/35.23%	1
1364	45	1.95e-101/545aa/35.6%	1
1387	45	4.91e-96/548aa/36.34%	1
474	30	4.20e-33/435aa/22.92%	1
1525	30	6.73e-37/504aa/26.9%	1
827	16	3.87e-29/276aa/19.14%	1
942	16	4.89e-29/276aa/19.14%	1
1208	16	2.64e-40/335aa/22.3%	1
1772	16	3.47e-44/287aa/20.44%	1
1727	16	4.55e-42/285aa/20.48%	1
290	16	3.77e-35/257aa/18.31%	1
661	16	4.05e-49/289aa/21.3%	1
709	16	2.27e-34/283aa/19.81%	1
702	48	*	1
939	16	1.53e-41/323aa/22.13%	1
924	30	2.41e-38/443aa/25.89%	1
1067	30	2.41e-38/443aa/25.89%	1
1608	29	1.07e-20/351:98aa/25.89%	1
73	45	2.61e-23/410aa/21.4%	1
531	16	2.23e-29/278aa/19.5%	1
681	45	1.93e-122/546aa/41.09%	1
1167	16	5.29e-42/284aa/23.1%	1
1755	45	3.39e-121/551aa/42.61%	1
12	49	*	1
244	16	4.20e-35/281aa/21.29%	1
348	16	4.20e-35/281aa/21.29%	1
1254	16	4.06e-44/276aa/21.48%	1
768	16	8.03e-38/277aa/20.61%	1
374	45	1.46e-30/545aa/26.19%	1
976	16	1.75e-41/275aa/20.65%	1
1541	16	2.14e-33/359aa/23.51%	1
492	50	*	1
634	45	1.93e-129/547aa/44.72%	1
692	51	*	1
98	52	*	1
1476	16	1.26e-29/280aa/20.07%	1
748	45	1.21e-28/490aa/24.17%	1
1607	12	2.35e-74/516aa/34.04%	1
496	16	2.32e-49/278aa/23.06%	1
1085	16	2.31e-22/272aa/18.99%	1
57	16	2.44e-52/287aa/24.12%	1
428	53	*	1
1258	53	0.0/513aa/100%	1
120	18	2.44e-21/255:134aa/24.07%	1
1702	45	8.62e-27/446aa/22.54%	1
429	50	9.96e-20/492aa/25.59%	1
1259	50	9.96e-20/492aa/25.59%	1
978	54	*	1
591	16	4.40e-49/277aa/21.73%	1
399	16	5.95e-24/321aa/20.63%	1
1405	55	*	1
1679	45	1.20e-22/434aa/22.81%	1
493	56	*	1
1297	55	0.0/451aa/70.77%	1
1346	55	0.0/451aa/70.77%	1
152	16	3.88e-37/252aa/18.72%	1
876	16	8.33e-25/321aa/21.95%	1
1522	45	6.61e-22/525aa/25.54%	1
195	30	0.0/500aa/82.8%	1
626	30	6.03e-35/464aa/28.65%	1
1455	45	1.67e-25/423aa/23.64%	1
214	55	0.0/451aa/68.07%	1
471	45	1.73e-21/435aa/22.08%	1
1751	57	*	1
1202	58	*	1
1497	45	1.13e-25/439aa/23.34%	1
445	45	9.22e-24/439aa/24.24%	1
1150	59	*	1
1275	45	9.22e-24/439aa/24.24%	1
1675	60	*	1
732	61	*	1
1633	45	6.64e-30/456aa/25.3%	1
1634	62	*	1
307	63	*	1
315	64	*	1
164	30	1.37e-36/432aa/29.31%	1
170	65	*	1
733	66	*	1
1699	67	*	1
1365	68	*	1
1628	60	5.93e-43/385aa/23.94%	1
381	60	6.19e-120/371aa/36.42%	1
1012	69	*	1
246	55	4.64e-23/250aa/24.26%	1
346	55	4.64e-23/250aa/24.26%	1
1382	44	4.55e-39/317aa/21.98%	1
1138	60	0.0/363aa/54.02%	1
1003	70	*	1
1708	60	1.09e-134/359aa/40.68%	1
1480	71	*	1
1052	16	5.25e-42/323aa/25.48%	1
1222	60	2.18e-139/361aa/42.98%	1
753	60	2.10e-148/365aa/42.39%	1
1235	72	*	1
1011	73	*	1
1563	60	2.19e-39/357aa/22.92%	1
801	60	4.89e-41/370aa/23.41%	1
843	60	1.01e-41/370aa/23.68%	1
958	60	2.36e-41/370aa/23.46%	1
1216	74	*	1
1611	75	*	1
90	76	*	1
251	74	7.88e-55/408aa/27.37%	1
546	60	2.06e-144/371aa/42.6%	1
892	60	4.04e-118/371aa/38.63%	1
1024	60	1.70e-35/369aa/22.29%	1
691	77	*	1
257	60	1.93e-124/371aa/40.97%	1
335	60	1.93e-124/371aa/40.97%	1
1320	78	*	1
579	60	4.07e-131/369aa/42.69%	1
119	60	2.67e-32/365aa/21.84%	1
1450	60	4.51e-133/376aa/44.36%	1
101	79	*	1
1760	60	2.74e-45/371aa/24.88%	1
1178	60	4.63e-40/362aa/24.48%	1
396	80	*	1
676	60	2.31e-37/367aa/23.28%	1
387	74	1.93e-65/372aa/29.06%	1
1669	74	7.32e-115/441aa/45.41%	1
1299	81	*	1
1348	81	0.0/435aa/100%	1
1144	74	1.96e-99/452aa/42.39%	1
163	60	9.57e-47/336aa/24.48%	1
1393	60	2.77e-37/365aa/24.53%	1
849	82	*	1
1311	60	2.89e-32/362aa/21.8%	1
1360	60	2.77e-31/362aa/21.8%	1
1327	68	8.37e-43/393aa/26.04%	1
365	83	*	1
925	60	1.31e-55/363aa/30.58%	1
1066	60	1.31e-55/363aa/30.58%	1
341	74	6.76e-55/385aa/28.6%	1
796	83	4.29e-62/384aa/33.8%	1
1191	84	*	1
820	85	*	1
848	83	4.44e-62/415aa/36.34%	1
963	83	4.83e-62/384aa/33.96%	1
205	86	*	1
475	60	6.45e-52/361aa/29.04%	1
585	74	8.66e-64/400aa/31.66%	1
1636	68	4.34e-40/381aa/25.95%	1
302	60	7.33e-58/363aa/31.5%	1
1493	60	8.19e-51/362aa/27.68%	1
1526	60	1.90e-47/361aa/27.44%	1
1340	86	1.08e-11/329aa/18.42%	1
624	60	1.13e-52/364aa/29.73%	1
191	68	0.0/416aa/91.1%	1
1316	68	0.0/416aa/100%	1
1746	87	*	1
1199	88	*	1
1321	83	3.22e-85/418aa/40.96%	1
441	60	4.05e-47/375aa/27.77%	1
497	89	*	1
701	90	*	1
783	91	*	1
871	92	*	1
1194	93	*	1
1271	60	4.05e-47/375aa/27.77%	1
1518	83	5.09e-125/419aa/51.69%	1
36	60	1.26e-44/366aa/28.32%	1
69	60	1.21e-44/364aa/27.84%	1
867	68	6.23e-106/378aa/41.64%	1
650	94	*	1
991	60	2.10e-52/360aa/29.85%	1
1326	95	*	1
463	83	1.28e-121/422aa/52.92%	1
1551	96	*	1
830	97	*	1
945	97	0.0/404aa/98.51%	1
886	74	2.37e-61/377aa/34.24%	1
1682	87	3.38e-75/396aa/39.2%	1
1559	79	1.31e-44/301aa/27.18%	1
1601	98	*	1
397	99	*	1
81	100	*	1
1386	68	1.82e-51/394aa/31.82%	1
309	101	*	1
688	83	3.10e-117/409aa/49.37%	1
8	102	*	1
878	99	2.42e-145/367aa/56.81%	1
1412	81	7.92e-25/248aa/20.05%	1
1778	103	*	1
620	104	*	1
232	81	9.28e-14/308aa/18.92%	1
361	81	9.28e-14/308aa/18.92%	1
1323	105	*	1
1700	106	*	1
234	107	*	1
359	107	0.0/389aa/100%	1
743	87	2.39e-78/317aa/35.98%	1
1373	105	3.66e-34/370aa/27.76%	1
1536	108	*	1
998	87	1.81e-75/391aa/40.97%	1
1544	109	*	1
1674	110	*	1
1602	111	*	1
455	87	3.32e-71/316aa/35.32%	1
1285	87	3.32e-71/316aa/35.32%	1
1745	112	*	1
270	87	7.59e-78/303aa/36.48%	1
322	87	7.59e-78/303aa/36.48%	1
647	68	5.23e-12/305aa/19.16%	1
1439	108	1.34e-19/373aa/30.52%	1
1139	110	6.57e-176/367aa/60.05%	1
393	113	*	1
1210	114	*	1
80	87	5.87e-77/309aa/36.72%	1
766	108	2.27e-76/338aa/46.38%	1
1465	87	4.32e-76/312aa/37.53%	1
1481	55	1.49e-08/250aa/19.57%	1
553	115	*	1
1221	110	1.01e-69/331aa/31.72%	1
514	116	*	1
1133	87	5.38e-53/294aa/31.35%	1
1503	87	2.28e-77/311aa/37.29%	1
487	108	3.36e-111/338aa/52.03%	1
1664	114	1.29e-45/274aa/29.81%	1
663	117	*	1
430	108	2.46e-83/343aa/45.23%	1
1260	108	2.46e-83/343aa/45.23%	1
831	33	1.24e-42/386aa/34.15%	1
946	33	4.38e-42/384aa/33.87%	1
105	118	*	1
900	87	1.16e-72/350aa/39.66%	1
1564	119	*	1
1612	1	2.13e-34/352aa/27.27%	1
720	60	4.50e-40/349aa/30.47%	1
292	120	*	1
842	119	5.21e-28/305aa/26.53%	1
957	119	5.65e-28/305aa/26.53%	1
704	61	2.46e-51/240:86aa/45.65%	1
802	119	1.52e-28/305aa/27.17%	1
1709	110	2.99e-37/289aa/23.52%	1
1761	121	*	1
589	108	1.45e-59/327aa/40.84%	1
1539	99	8.94e-76/334aa/41.4%	1
392	108	1.92e-17/368aa/32.48%	1
494	122	*	1
678	44	1.58e-38/291aa/28.81%	1
868	68	4.95e-15/295aa/23.16%	1
237	81	6.20e-28/227aa/21.81%	1
355	81	6.20e-28/227aa/21.81%	1
1757	21	1.25e-16/199aa/18.69%	1
414	68	4.16e-14/350aa/27.27%	1
1149	123	*	1
1723	120	5.00e-21/314aa/27.55%	1
780	68	1.76e-11/309aa/19.08%	1
1461	124	*	1
1478	99	5.75e-60/358aa/38.74%	1
545	110	1.49e-43/302aa/26.57%	1
754	110	8.22e-48/349aa/30.85%	1
1501	125	*	1
1712	126	*	1
599	68	4.70e-13/329aa/25.86%	1
675	110	3.83e-13/361aa/23.85%	1
1537	33	9.24e-37/367aa/34.48%	1
144	127	*	1
1498	124	7.53e-111/347aa/59.65%	1
1627	119	1.24e-18/295aa/27.08%	1
508	68	1.40e-10/355aa/27.16%	1
45	129	9.61e-37/330aa/30.14%	1
59	108	7.81e-50/369aa/42.31%	1
235	129	4.79e-39/332aa/30.43%	1
358	129	4.79e-39/332aa/30.43%	1
832	128	*	1
947	128	0.0/345aa/94.78%	1
1576	128	4.39e-24/336aa/27.53%	1
1587	129	*	1
198	110	5.38e-09/361aa/23.83%	1
812	120	7.29e-07/211aa/16.27%	1
1527	110	1.11e-14/314aa/22.09%	1
21	108	7.33e-119/345aa/55.68%	1
35	130	*	1
68	130	0.0/343aa/99.41%	1
623	130	1.08e-42/282aa/28.57%	1
654	129	1.28e-44/331aa/29.44%	1
670	74	1.28e-35/332aa/29.44%	1
118	130	2.86e-26/299aa/24.56%	1
440	130	0.0/343aa/78.07%	1
476	130	4.58e-173/343aa/72.8%	1
533	108	2.36e-36/357aa/38.01%	1
1270	130	0.0/343aa/78.07%	1
1394	130	7.99e-34/301aa/26.02%	1
1492	130	0.0/343aa/80.7%	1
1616	131	*	1
937	120	7.29e-46/295aa/36.65%	1
1054	120	7.29e-46/295aa/36.65%	1
1310	130	5.43e-30/300aa/24.34%	1
1359	130	5.43e-30/300aa/24.34%	1
162	130	5.92e-28/226aa/19.41%	1
229	132	*	1
301	130	3.11e-53/313aa/34.21%	1
364	132	0.0/339aa/100%	1
706	118	2.43e-48/339aa/33.03%	1
927	130	5.55e-51/313aa/33.62%	1
1064	130	5.55e-51/313aa/33.62%	1
719	130	1.75e-28/262aa/23.37%	1
1025	130	4.34e-10/307aa/22.48%	1
1177	130	1.47e-26/256aa/24.55%	1
711	133	*	1
990	130	2.80e-46/313aa/34.42%	1
1017	129	2.68e-59/333aa/32.34%	1
280	129	8.31e-32/305aa/25.59%	1
815	122	2.11e-13/230aa/19.94%	1
880	108	2.21e-09/281aa/25%	1
1449	110	4.72e-41/349aa/35.71%	1
1729	134	*	1
1155	129	6.43e-36/329aa/29.55%	1
1780	129	2.10e-55/336aa/34.62%	1
382	110	6.58e-42/311aa/30.33%	1
979	128	4.35e-36/232aa/26.42%	1
1169	133	6.86e-67/282aa/37.83%	1
1548	129	1.72e-64/332aa/36.03%	1
256	110	9.12e-47/282aa/29.51%	1
336	110	9.12e-47/282aa/29.51%	1
518	135	*	1
1736	129	3.16e-43/326aa/32.83%	1
266	136	*	1
326	136	0.0/331aa/100%	1
154	133	1.89e-12/273aa/26.06%	1
218	122	8.79e-23/230aa/21.81%	1
110	133	8.34e-09/256aa/23.7%	1
1033	133	2.09e-30/293aa/29.78%	1
1770	114	4.05e-14/148aa/16.41%	1
611	123	2.93e-25/240aa/25%	1
580	110	2.41e-39/317aa/29.96%	1
891	110	1.40e-40/249aa/28.13%	1
1083	122	2.27e-19/201aa/19.01%	1
630	21	8.05e-45/265aa/31.38%	1
1487	74	1.13e-40/306aa/31.07%	1
798	21	3.74e-17/193aa/18.2%	1
846	21	9.58e-18/193aa/18.2%	1
961	21	8.65e-18/193aa/18.2%	1
18	122	4.71e-11/236aa/20.8%	1
375	21	7.58e-19/240aa/21.42%	1
1444	74	1.71e-56/322aa/36.95%	1
313	137	*	1
549	21	3.12e-19/233aa/21.87%	1
657	138	*	1
749	21	7.72e-23/237aa/23.75%	1
829	122	2.60e-07/217aa/16.56%	1
944	122	7.76e-07/220aa/15.93%	1
1704	21	2.32e-12/233aa/19.68%	1
1678	139	*	1
1631	139	1.09e-53/288aa/30.59%	1
39	139	5.23e-47/301aa/30.69%	1
72	139	4.90e-46/274aa/28.48%	1
427	122	4.47e-18/184aa/16.45%	1
435	74	2.06e-34/242aa/25%	1
1257	122	4.47e-18/184aa/16.45%	1
1265	74	2.06e-34/242aa/25%	1
1432	140	*	1
1523	139	9.77e-48/296aa/30.37%	1
25	74	6.81e-46/246aa/27.61%	1
1453	139	5.88e-134/314aa/58.41%	1
1496	139	6.41e-45/294aa/28.57%	1
1622	74	7.81e-43/297aa/30.79%	1
63	74	9.07e-46/246aa/27.7%	1
444	139	1.42e-52/295aa/32.16%	1
472	139	8.03e-174/311aa/71.33%	1
1274	139	1.42e-52/295aa/32.16%	1
1532	74	3.54e-43/233aa/27.07%	1
1766	74	2.93e-50/289aa/30.57%	1
260	139	1.71e-141/312aa/62.3%	1
332	139	1.32e-142/312aa/62.61%	1
481	74	2.60e-39/260aa/28.43%	1
837	74	9.92e-40/302aa/28.75%	1
952	74	1.82e-40/302aa/28.75%	1
1192	141	*	1
1604	142	*	1
1569	74	1.55e-35/306aa/29.26%	1
421	0	1.09e-15/231aa/23.22%	1
424	16	2.48e-41/237aa/32.25%	1
1030	74	6.43e-34/248aa/24.51%	1
807	74	4.69e-40/298aa/28.8%	1
86	143	*	1
1009	144	*	1
686	145	*	1
759	74	1.13e-73/318aa/42.81%	1
1305	74	4.02e-32/305aa/30.06%	1
1354	74	2.43e-32/305aa/29.08%	1
1715	74	2.21e-62/305aa/37.9%	1
113	74	3.41e-36/298aa/29.18%	1
203	74	5.97e-36/306aa/30.16%	1
540	74	7.54e-72/298aa/41.63%	1
7	146	*	1
179	147	*	1
856	148	*	1
1399	74	4.59e-31/310aa/29.93%	1
680	149	*	1
140	150	*	1
167	151	*	1
317	152	*	1
488	153	*	1
1172	74	3.41e-41/256aa/28.57%	1
1197	154	*	1
410	155	*	1
617	74	1.29e-52/307aa/39.13%	1
984	74	1.32e-50/248aa/32.1%	1
1470	156	*	1
1595	157	*	1
932	74	8.30e-53/260aa/31.98%	1
1059	74	8.30e-53/260aa/31.98%	1
296	74	8.03e-54/272aa/34.45%	1
1324	158	*	1
714	74	3.15e-30/306aa/29.59%	1
373	159	*	1
1034	99	7.01e-21/194aa/19.86%	1
1213	160	*	1
223	161	*	1
731	162	*	1
662	99	2.21e-21/229aa/20.83%	1
971	103	5.99e-26/233aa/25%	1
1204	163	*	1
1550	164	*	1
169	165	*	1
158	74	5.89e-29/287aa/29.72%	1
1420	166	*	1
877	99	9.03e-07/246aa/22.1%	1
515	167	*	1
608	16	3.82e-39/232aa/32.74%	1
1249	168	*	1
398	169	*	1
277	170	*	1
1156	103	2.33e-47/272aa/36.78%	1
1586	103	3.06e-29/262aa/32.61%	1
1614	171	*	1
682	172	*	1
226	173	*	1
99	174	*	1
1479	175	*	1
1662	171	2.05e-24/236aa/28.72%	1
1209	171	5.81e-16/204aa/22.26%	1
1232	176	*	1
1328	166	1.39e-140/259aa/76.27%	1
109	171	6.03e-31/250aa/28.57%	1
217	177	*	1
532	169	2.12e-57/282aa/46.52%	1
1540	169	1.93e-64/285aa/45.05%	1
89	178	*	1
186	179	*	1
221	99	9.50e-13/194aa/18.81%	1
245	169	6.06e-73/277aa/47.6%	1
347	169	6.06e-73/277aa/47.6%	1
943	171	2.53e-32/239aa/29.52%	1
190	180	*	1
261	159	8.99e-129/262aa/66.29%	1
331	159	8.99e-129/262aa/66.29%	1
470	159	7.63e-131/263aa/65.92%	1
828	171	5.77e-34/235aa/29.62%	1
1130	158	4.96e-27/258aa/27.77%	1
1456	159	6.83e-133/262aa/67.03%	1
1696	159	1.52e-79/259aa/48.51%	1
1722	148	3.00e-19/268aa/27.4%	1
446	159	3.95e-127/263aa/66.54%	1
1276	159	3.95e-127/263aa/66.54%	1
1477	169	2.41e-56/256aa/42.75%	1
87	143	4.71e-07/151aa/17.91%	1
525	103	1.30e-34/228aa/30.59%	1
1580	171	3.19e-33/245aa/30.97%	1
285	103	2.52e-26/262aa/32.95%	1
1406	169	2.28e-11/269aa/30.33%	1
1556	181	*	1
275	182	*	1
1385	183	*	1
1438	171	1.64e-62/246aa/39.47%	1
1658	103	3.37e-39/244aa/30.82%	1
505	103	9.08e-31/230aa/30.18%	1
977	171	9.13e-23/238aa/26.79%	1
1296	99	5.22e-13/198aa/19.24%	1
1345	99	5.22e-13/198aa/19.24%	1
1427	103	3.02e-30/230aa/30.18%	1
1609	184	*	1
16	169	4.76e-23/213aa/26.51%	1
94	185	*	1
222	16	6.57e-26/247aa/36.74%	1
710	171	5.72e-16/269aa/30.68%	1
1244	103	6.41e-30/229aa/29.92%	1
1469	103	2.24e-55/255aa/40.53%	1
10	103	7.05e-47/257aa/41.06%	1
53	103	8.43e-46/262aa/41.82%	1
495	169	1.35e-42/244aa/37.64%	1
667	186	*	1
735	184	5.45e-12/247aa/25.09%	1
778	103	8.26e-30/226aa/29.27%	1
656	103	8.38e-58/248aa/41.98%	1
1008	187	*	1
1255	169	1.53e-21/225aa/29.77%	1
554	184	1.67e-08/246aa/21.83%	1
816	171	3.52e-28/250aa/35.24%	1
1645	188	*	1
767	99	6.16e-23/189aa/21.92%	1
130	32	1.50e-09/138aa/16.6%	1
58	169	2.83e-26/228aa/32.17%	1
1374	189	*	1
1515	190	*	1
153	171	3.00e-21/195aa/24.9%	1
459	191	*	1
484	192	*	1
1771	99	3.44e-11/213aa/22.17%	1
215	193	*	1
590	169	2.82e-18/266aa/30.85%	1
764	160	6.18e-24/183aa/24.21%	1
817	16	1.89e-39/260aa/41.01%	1
1220	194	*	1
395	175	5.47e-22/250aa/28.62%	1
609	171	2.16e-36/211aa/32.15%	1
1666	160	3.94e-38/182aa/27.84%	1
390	192	5.05e-48/231aa/38.58%	1
419	195	*	1
1147	160	4.24e-41/179aa/27.95%	1
1615	196	*	1
291	171	1.37e-25/224aa/30.43%	1
1084	169	1.79e-21/276aa/33.2%	1
1168	171	1.78e-15/233aa/26.08%	1
1538	33	1.52e-09/219aa/26.48%	1
408	197	*	1
1372	198	*	1
803	194	3.09e-18/136aa/15.93%	1
841	194	1.03e-20/140aa/17.92%	1
956	194	1.09e-20/138aa/17.13%	1
1032	199	*	1
1088	200	*	1
95	201	*	1
196	202	*	1
536	160	3.19e-31/181aa/26.1%	1
593	200	8.51e-65/250aa/40.96%	1
818	21	6.64e-42/261aa/39.35%	1
1292	203	*	1
1341	203	1.71e-175/249aa/100%	1
1673	194	7.46e-32/163aa/24.89%	1
209	186	7.89e-31/195aa/29.83%	1
426	148	8.05e-12/165aa/22.17%	1
689	204	*	1
1256	148	8.05e-12/165aa/22.17%	1
1383	205	*	1
394	206	*	1
1140	194	4.77e-37/201aa/29.95%	1
1724	193	2.96e-41/223aa/31.57%	1
1769	207	*	1
1301	186	7.37e-30/195aa/29.67%	1
1350	186	7.37e-30/195aa/29.67%	1
755	194	7.17e-32/184aa/27.86%	1
922	208	*	1
1069	208	0.0/244aa/100%	1
1402	186	2.97e-28/190aa/29.5%	1
1720	160	6.16e-36/183aa/29.09%	1
1442	192	1.13e-51/241aa/42.79%	1
1454	209	*	1
1603	210	*	1
858	211	*	1
1170	199	2.29e-17/171aa/21.07%	1
1118	212	*	1
1652	213	*	1
792	214	*	1
854	214	2.13e-171/240aa/96.25%	1
1565	215	*	1
1781	216	*	1
150	217	*	1
156	207	2.18e-07/180aa/19.24%	1
787	211	1.25e-134/240aa/82%	1
544	194	8.31e-34/176aa/28.15%	1
1560	139	2.08e-29/236aa/33.61%	1
111	207	1.41e-14/125aa/16.87%	1
247	192	5.81e-45/226aa/35.86%	1
345	192	5.81e-45/226aa/35.86%	1
1026	194	2.48e-13/184aa/21.09%	1
1512	191	9.72e-74/245aa/50.84%	1
1514	218	*	1
535	192	6.99e-53/235aa/42.12%	1
814	219	*	1
938	171	2.57e-31/244aa/37.44%	1
1053	171	2.57e-31/244aa/37.44%	1
1205	220	*	1
1710	194	7.01e-33/192aa/28.93%	1
1726	171	1.22e-14/199aa/26.38%	1
409	81	9.72e-22/234aa/31.62%	1
883	192	1.43e-53/199aa/38.88%	1
1534	192	4.80e-53/233aa/43.58%	1
20	221	*	1
659	200	5.11e-17/177aa/26.18%	1
712	199	4.17e-25/191aa/30.6%	1
1459	222	*	1
1	81	2.47e-24/234aa/32.03%	1
1291	223	*	1
1317	224	*	1
1366	224	5.17e-170/230aa/100%	1
1484	192	8.16e-90/229aa/60.43%	1
1637	224	1.42e-121/231aa/73.04%	1
134	225	*	1
813	226	*	1
383	194	3.58e-24/185aa/25.87%	1
432	192	2.48e-89/228aa/63.15%	1
1262	192	2.48e-89/228aa/63.15%	1
1545	216	1.90e-17/199aa/25.43%	1
75	227	*	1
188	224	2.75e-112/228aa/71.36%	1
450	222	9.27e-104/222aa/74%	1
1280	222	9.27e-104/222aa/74%	1
14	200	4.28e-17/178aa/24.77%	1
189	228	*	1
587	192	5.25e-48/229aa/42.22%	1
725	229	*	1
810	230	4.03e-146/225aa/92.88%	1
834	230	*	1
949	230	1.88e-152/225aa/97.77%	1
1378	228	6.75e-105/225aa/63.55%	1
132	211	1.22e-16/229aa/30.35%	1
1435	220	1.37e-26/197aa/28.12%	1
1472	231	*	1
1762	215	3.55e-10/124aa/18.75%	1
255	194	1.11e-20/165aa/21.97%	1
337	194	1.11e-20/165aa/21.97%	1
556	232	*	1
1251	220	6.17e-40/230aa/37.66%	1
128	233	*	1
528	220	7.12e-35/186aa/31.08%	1
581	194	1.20e-23/209aa/31.53%	1
825	234	*	1
1618	207	2.08e-32/152aa/31.98%	1
1663	231	2.81e-49/211aa/45.49%	1
240	235	*	1
352	235	5.93e-136/221aa/100%	1
467	236	*	1
890	194	1.30e-29/186aa/30.31%	1
1448	194	3.46e-28/175aa/29.41%	1
1543	203	5.35e-12/159aa/20.9%	1
225	203	1.63e-134/219aa/89.49%	1
923	237	*	1
1189	238	*	1
1409	203	2.09e-124/219aa/82.64%	1
1579	239	*	1
100	240	*	1
308	241	*	1
631	228	6.48e-43/208aa/38.07%	1
55	200	2.01e-23/168aa/29.03%	1
1050	242	*	1
23	207	4.36e-07/134aa/17.12%	1
61	186	5.77e-07/176aa/23.61%	1
456	89	7.54e-15/85aa/16.66%	1
560	243	*	1
1000	159	1.52e-14/114aa/19.9%	1
1286	89	7.54e-15/85aa/16.66%	1
1626	215	1.35e-35/161aa/31.01%	1
401	203	6.79e-13/146aa/19.53%	1
696	244	*	1
1573	245	*	1
613	230	1.74e-22/212aa/31.3%	1
974	234	8.94e-38/189aa/30.98%	1
187	246	*	1
872	247	*	1
1163	248	*	1
146	249	*	1
293	230	1.93e-18/214aa/28.9%	1
520	250	*	1
907	251	*	1
935	230	1.49e-19/213aa/31.27%	1
1056	230	1.49e-19/213aa/31.27%	1
1238	252	*	1
161	215	3.13e-15/157aa/22.38%	1
490	193	3.43e-42/233aa/38.57%	1
742	253	*	1
685	254	*	1
51	255	*	1
85	256	*	1
176	257	*	1
425	169	3.85e-19/192aa/32.03%	1
602	258	*	1
1620	259	*	1
1659	203	1.37e-13/172aa/28.15%	1
864	260	*	1
981	245	2.10e-09/105aa/15.12%	1
1395	215	7.33e-16/126aa/18.53%	1
918	107	1.60e-07/190aa/23.03%	1
1384	261	*	1
622	215	2.20e-13/150aa/21.18%	1
643	258	6.44e-50/187aa/44.33%	1
1322	262	*	1
88	263	*	1
969	264	*	1
1040	265	*	1
136	266	*	1
242	267	*	1
316	268	*	1
350	267	3.10e-70/142aa/70.64%	1
1161	107	1.55e-21/192aa/27.86%	1
199	215	1.18e-16/168aa/22.5%	1
216	269	*	1
447	224	1.77e-14/146aa/24%	1
555	270	*	1
747	224	9.20e-14/146aa/23%	1
770	271	*	1
1277	224	1.77e-14/146aa/24%	1
1309	215	1.98e-17/172aa/24%	1
1358	215	1.65e-17/172aa/24%	1
1590	272	*	1
1597	273	*	1
83	274	*	1
300	215	6.03e-10/101aa/20.1%	1
674	215	7.10e-17/161aa/24.12%	1
874	271	2.88e-11/149aa/22.61%	1
988	215	1.20e-09/79aa/15.57%	1
1046	275	*	1
928	215	1.42e-12/160aa/28.28%	1
972	276	*	1
1063	215	1.42e-12/160aa/28.28%	1
288	200	6.35e-08/171aa/25.38%	1
738	277	*	1
1100	278	*	1
1187	279	*	1
1555	280	*	1
521	281	*	1
1072	107	1.84e-07/190aa/23.97%	1
34	215	1.43e-11/171aa/27.69%	1
67	215	1.36e-11/171aa/27.69%	1
477	194	4.17e-11/168aa/25.12%	1
904	253	2.91e-98/207aa/70.76%	1
1528	194	5.56e-15/165aa/25.12%	1
117	194	5.08e-14/162aa/25.77%	1
862	282	*	1
1491	215	6.59e-10/135aa/22.68%	1
1644	283	*	1
439	194	1.49e-10/141aa/23.31%	1
1068	237	1.43e-122/193aa/99.48%	1
1269	194	1.49e-10/141aa/23.31%	1
1583	134	7.21e-07/91aa/17.61%	1
197	284	*	1
605	285	*	1
2	197	3.29e-33/183aa/50.26%	1
517	286	*	1
91	287	*	1
573	288	*	1
1103	289	*	1
1154	290	*	1
52	276	5.31e-11/166aa/36.17%	1
148	291	*	1
231	292	*	1
362	292	5.38e-121/188aa/100%	1
1336	293	*	1
1646	294	*	1
1777	276	2.63e-27/204aa/40.95%	1
104	295	*	1
138	296	*	1
633	297	*	1
230	298	*	1
363	298	2.60e-115/186aa/97.31%	1
718	215	1.60e-13/156aa/22.58%	1
1037	299	*	1
1176	215	2.45e-20/156aa/27.95%	1
500	271	5.89e-09/129aa/22.28%	1
964	300	*	1
1768	259	9.67e-13/123aa/19.02%	1
3	301	*	1
28	302	*	1
284	276	1.56e-23/104aa/27.32%	1
457	283	5.13e-37/142aa/35.51%	1
506	276	9.26e-19/138aa/31.69%	1
552	303	*	1
1287	283	5.13e-37/142aa/35.51%	1
294	259	5.36e-12/123aa/19.78%	1
648	304	*	1
912	305	*	1
934	259	3.81e-12/123aa/20.32%	1
1057	259	3.81e-12/123aa/20.32%	1
1077	305	5.93e-134/182aa/100%	1
504	306	2.61e-85/162aa/65.19%	1
526	306	*	1
777	306	3.47e-82/163aa/64.08%	1
916	307	*	1
1074	307	3.78e-128/181aa/100%	1
1245	306	9.45e-87/181aa/72.37%	1
1428	306	2.23e-88/163aa/68.5%	1
304	308	*	1
391	309	*	1
41	310	*	1
129	311	*	1
940	0	1.50e-08/137aa/20.11%	1
615	259	2.84e-10/123aa/19.66%	1
1193	312	*	1
1552	313	*	1
561	314	*	1
982	259	1.67e-14/122aa/24.29%	1
1119	315	*	1
1325	316	*	1
511	310	6.52e-15/185aa/27.84%	1
936	317	*	1
1414	293	2.15e-67/178aa/65.34%	1
1721	317	5.00e-09/153aa/25.56%	1
1774	235	6.57e-14/144aa/28.97%	1
1776	276	9.54e-24/127aa/33.52%	1
19	318	*	1
819	319	*	1
1474	200	3.61e-09/120aa/18.85%	1
1226	45	7.59e-19/175aa/36.2%	1
1422	320	*	1
76	321	*	1
411	322	*	1
558	321	1.57e-98/173aa/82.65%	1
980	317	3.19e-22/162aa/34.1%	1
1410	323	*	1
1468	276	2.12e-11/61aa/18.49%	1
458	324	*	1
513	325	*	1
1164	326	*	1
1553	327	*	1
356	328	*	1
462	329	*	1
372	330	*	1
915	331	*	1
1075	331	1.46e-123/170aa/100%	1
1246	255	6.37e-74/160aa/59.41%	1
1511	332	*	1
40	333	*	1
263	330	1.35e-95/165aa/78.44%	1
329	330	1.35e-95/165aa/78.44%	1
1151	334	*	1
1694	335	*	1
1425	276	1.15e-11/40aa/17.46%	1
168	336	*	1
503	255	1.77e-56/164aa/56.36%	1
1087	337	*	1
1117	338	*	1
1127	339	*	1
1186	331	2.83e-25/152aa/35.75%	1
1429	255	4.69e-76/165aa/61.81%	1
1731	276	2.47e-26/140aa/35.75%	1
639	340	*	1
727	331	6.75e-19/147aa/32.92%	1
1380	341	*	1
180	198	8.61e-81/166aa/69.93%	1
468	330	1.97e-70/165aa/64.41%	1
1055	317	2.05e-104/163aa/100%	1
1457	330	1.77e-83/165aa/72.39%	1
652	342	*	1
902	343	*	1
1554	344	*	1
911	345	*	1
1078	345	1.20e-96/161aa/100%	1
779	276	3.10e-07/80aa/18.12%	1
49	346	*	1
142	347	*	1
143	348	*	1
423	349	*	1
174	350	*	1
84	351	*	1
1426	276	4.29e-12/40aa/19.23%	1
655	276	6.49e-12/40aa/19.48%	1
921	352	*	1
1779	353	*	1
1375	354	*	1
24	355	*	1
62	355	6.51e-103/152aa/96.71%	1
139	356	*	1
596	337	1.35e-21/128aa/30.92%	1
728	357	*	1
422	1	1.54e-09/108aa/21.85%	1
903	358	*	1
1370	359	*	1
1533	355	5.51e-56/154aa/57.61%	1
1639	359	2.40e-96/151aa/89.4%	1
74	360	*	1
482	355	4.66e-51/153aa/53.33%	1
1233	361	*	1
1519	360	8.29e-83/150aa/72.66%	1
194	14	9.09e-39/100aa/51.67%	1
1081	362	*	1
1486	355	3.43e-57/153aa/66.44%	1
9	276	6.00e-13/48aa/20.27%	1
183	359	3.45e-94/147aa/88.51%	1
311	363	*	1
464	364	*	1
973	276	3.21e-19/108aa/32.43%	1
1159	276	8.13e-18/100aa/31.75%	1
1215	365	*	1
1229	366	*	1
273	367	*	1
434	355	2.11e-40/154aa/50.34%	1
522	250	1.82e-19/116aa/36.05%	1
524	276	8.93e-11/33aa/17.68%	1
665	368	*	1
1264	355	2.11e-40/154aa/50.34%	1
112	355	3.34e-11/104aa/25.34%	1
645	369	*	1
782	310	5.12e-20/111aa/26.71%	1
1135	370	*	1
1388	371	*	1
1227	366	3.05e-26/147aa/35.17%	1
1381	372	*	1
1585	276	4.63e-27/192aa/52.41%	1
1145	365	1.77e-35/113aa/39.16%	1
1329	373	*	1
1390	374	*	1
1557	359	5.45e-20/120aa/34.96%	1
1668	365	1.15e-34/123aa/37.76%	1
1732	375	*	1
1655	276	8.35e-14/38aa/21.83%	1
448	376	*	1
1031	355	2.00e-12/122aa/29.07%	1
1278	376	8.72e-103/141aa/100%	1
1458	376	4.38e-81/141aa/78.01%	1
1606	377	*	1
1747	378	*	1
454	379	*	1
486	309	1.42e-25/88aa/32.85%	1
1112	378	4.06e-18/72aa/22.14%	1
1284	379	7.69e-80/140aa/100%	1
1640	380	*	1
1740	381	*	1
286	276	1.28e-17/85aa/30.21%	1
598	382	*	1
765	309	1.24e-14/97aa/28.05%	1
1243	276	9.40e-12/46aa/20.14%	1
703	383	*	1
1105	384	*	1
1109	385	*	1
1160	386	*	1
1162	387	*	1
1441	368	6.16e-21/110aa/31.88%	1
1584	276	4.52e-24/124aa/44.2%	1
1688	388	*	1
287	276	9.95e-23/92aa/35.03%	1
319	367	4.36e-70/137aa/98.54%	1
700	389	*	1
729	390	*	1
788	391	*	1
1389	392	*	1
1693	393	*	1
534	309	2.13e-24/111aa/37.5%	1
1099	394	*	1
1158	276	1.41e-22/113aa/35.29%	1
1252	200	3.68e-14/117aa/27.94%	1
1482	368	4.86e-16/115aa/32.35%	1
1684	395	*	1
1692	396	*	1
145	397	*	1
166	398	*	1
403	399	*	1
588	309	2.78e-09/91aa/27.4%	1
996	400	*	1
1171	355	8.03e-07/132aa/25.18%	1
1419	373	5.40e-62/143aa/73.33%	1
1718	365	1.22e-29/116aa/36.29%	1
405	306	6.60e-61/120aa/67.66%	1
537	365	3.82e-25/132aa/37.59%	1
762	365	8.81e-23/119aa/33.83%	1
881	309	1.85e-31/124aa/44.36%	1
908	401	*	1
1042	402	*	1
1131	403	*	1
1314	404	*	1
1653	255	2.18e-07/163aa/33.08%	1
1695	405	*	1
157	355	6.58e-16/98aa/29.54%	1
279	406	*	1
453	407	*	1
736	408	*	1
790	409	*	1
1225	410	*	1
1283	407	4.71e-98/132aa/100%	1
1463	411	*	1
1500	411	1.55e-50/132aa/62.87%	1
901	412	*	1
1038	413	*	1
1039	414	*	1
1051	415	*	1
1434	416	*	1
233	417	*	1
360	417	5.00e-98/130aa/100%	1
1001	418	*	1
1129	419	*	1
1535	368	2.67e-18/107aa/31.53%	1
999	420	*	1
1157	276	1.64e-18/82aa/32.55%	1
1521	421	*	1
1656	276	8.51e-14/95aa/36.43%	1
641	422	*	1
909	423	*	1
1080	423	2.07e-74/128aa/100%	1
1123	424	*	1
1302	425	*	1
1351	425	1.66e-89/128aa/100%	1
1401	425	5.61e-83/128aa/90.62%	1
1657	276	2.00e-14/43aa/26.56%	1
124	426	*	1
208	425	6.43e-61/124aa/76.37%	1
431	368	1.29e-16/93aa/29.13%	1
1195	427	*	1
1261	368	1.29e-16/93aa/29.13%	1
465	421	1.98e-15/114aa/42.06%	1
995	415	6.13e-10/123aa/38.09%	1
1044	428	*	1
1095	429	*	1
1319	430	*	1
1368	430	1.05e-88/126aa/98.41%	1
1505	431	*	1
1513	432	*	1
1570	433	*	1
276	434	*	1
786	435	*	1
793	436	*	1
822	422	9.96e-25/116aa/35.2%	1
850	436	1.50e-79/123aa/85.6%	1
859	435	1.41e-73/125aa/80%	1
896	421	9.10e-24/129aa/49.6%	1
1014	437	*	1
1304	438	*	1
1719	439	*	1
184	430	1.98e-57/123aa/66.93%	1
576	421	2.43e-18/126aa/44.35%	1
668	425	7.13e-42/115aa/49.19%	1
607	440	*	1
636	441	*	1
791	442	*	1
852	443	*	1
855	442	3.05e-70/123aa/84.55%	1
1185	444	*	1
1421	445	*	1
1499	421	3.95e-21/117aa/47.15%	1
1566	446	*	1
1593	447	*	1
1594	448	*	1
1691	428	3.06e-64/117aa/72.35%	1
1739	449	*	1
507	450	*	1
595	451	*	1
695	452	*	1
869	429	1.23e-35/107aa/45.08%	1
1091	453	*	1
265	421	3.13e-26/122aa/56.19%	1
327	421	3.13e-26/122aa/56.19%	1
808	355	1.86e-13/121aa/33.05%	1
836	355	2.64e-12/101aa/28.09%	1
951	355	5.80e-13/101aa/28.09%	1
1462	421	3.44e-18/127aa/45.45%	1
1625	454	*	1
106	455	*	1
550	456	*	1
1181	421	1.74e-20/120aa/42.5%	1
1433	450	9.32e-25/100aa/41.66%	1
466	457	*	1
1376	458	*	1
1510	459	*	1
418	220	2.12e-20/108aa/36.44%	1
1703	460	*	1
1711	461	*	1
586	365	1.41e-16/115aa/35.89%	1
785	462	*	1
885	365	1.26e-17/100aa/31.62%	1
1027	463	*	1
1097	89	1.41e-11/77aa/27.35%	1
1752	464	*	1
125	465	*	1
1467	450	1.28e-32/118aa/48.27%	1
1717	466	*	1
378	467	*	1
853	429	2.95e-18/101aa/34.78%	1
1019	89	2.02e-12/70aa/26.95%	1
644	468	*	1
539	74	1.67e-07/113aa/29.46%	1
1188	469	*	1
1230	470	*	1
1460	471	*	1
1689	472	*	1
1697	473	*	1
1706	474	*	1
30	475	*	1
50	476	*	1
567	477	*	1
640	478	*	1
1148	479	*	1
1219	480	*	1
1290	481	*	1
1339	481	3.29e-71/97aa/87.38%	1